 Gaussian 98, Revision A.7,
 Gaussian 98:  x86-Linux-G98RevA.7 11-Apr-1999

 --------------
 #p RMP2/6-31G*
 --------------

 ----------------------
 B8Br12 to check energy
 ----------------------
 Symbolic Z-matrix:
 Charge =  0 Multiplicity = 1

                         Standard orientation:
 ---------------------------------------------------------------------
 Center     Atomic     Atomic              Coordinates (Angstroms)
 Number     Number      Type              X           Y           Z
 ---------------------------------------------------------------------
    1          5             0       -1.069285    0.179475   -0.231776
    2          5             0        0.693422   -0.067249    0.056174
    3          5             0       -0.089084   -0.725151   -1.326671
    4          5             0        1.041836   -1.185697    1.327550
    5         35             0       -0.214638   -2.460345   -2.099206
    6         35             0       -1.135657    0.783447   -2.263317
    7         35             0        0.895071   -3.083900    1.128424
    8         35             0        1.571094   -0.566625    3.050693
    9          5             0        1.851500   -0.188218   -1.231362
   10          5             0        1.506067    1.513479    0.147889
   11          5             0       -2.297493   -0.977080    0.033366
   12          5             0       -1.709662    1.386473    0.779434
   13         35             0        2.175172    0.930282   -2.770565
   14         35             0        3.301477   -1.369202   -0.801932
   15         35             0       -2.302714   -1.823763    1.726158
   16         35             0       -3.684899   -1.241991   -1.223497
   17         35             0        3.186825    1.728631    0.991049
   18         35             0        0.561418    3.104923   -0.338578
   19         35             0       -3.102042    2.473163    0.057029
   20         35             0       -1.240721    1.534519    2.607370
 ---------------------------------------------------------------------

 SCF Done:  E(RHF) =  -31036.5258515     A.U. after   20 cycles
 E2 =    -0.2111469570D+01 EUMP2 =    -0.31038637321022D+05

 Alpha  occ. eigenvalues -- -490.12314-490.09908-490.09854-490.09315-490.09229
 Alpha  occ. eigenvalues -- -490.09016-490.08882-490.08560-490.08534-490.08400
 Alpha  occ. eigenvalues -- -490.07119-490.06889 -64.53345 -64.51044 -64.51003
 Alpha  occ. eigenvalues --  -64.50448 -64.50379 -64.50200 -64.50021 -64.49772
 Alpha  occ. eigenvalues --  -64.49689 -64.49578 -64.48299 -64.48031 -58.66914
 Alpha  occ. eigenvalues --  -58.66819 -58.66757 -58.64786 -58.64771 -58.64647
 Alpha  occ. eigenvalues --  -58.64639 -58.64631 -58.64623 -58.64151 -58.64089
 Alpha  occ. eigenvalues --  -58.64035 -58.64016 -58.63978 -58.63962 -58.63943
 Alpha  occ. eigenvalues --  -58.63830 -58.63810 -58.63776 -58.63653 -58.63641
 Alpha  occ. eigenvalues --  -58.63546 -58.63430 -58.63414 -58.63408 -58.63383
 Alpha  occ. eigenvalues --  -58.63291 -58.63283 -58.63267 -58.63246 -58.62033
 Alpha  occ. eigenvalues --  -58.61924 -58.61904 -58.61743 -58.61627 -58.61611
 Alpha  occ. eigenvalues --   -9.77921  -9.75767  -9.75755  -9.75153  -9.75105
 Alpha  occ. eigenvalues --   -9.74976  -9.74790  -9.74579  -9.74434  -9.74408
 Alpha  occ. eigenvalues --   -9.73063  -9.72757  -7.76774  -7.76526  -7.75448
 Alpha  occ. eigenvalues --   -7.74231  -7.73605  -7.72015  -7.64450  -7.62880
 Alpha  occ. eigenvalues --   -7.52526  -7.52071  -7.51762  -7.50501  -7.50482
 Alpha  occ. eigenvalues --   -7.49916  -7.49845  -7.49836  -7.49784  -7.49761
 Alpha  occ. eigenvalues --   -7.49756  -7.49680  -7.49506  -7.49299  -7.49281
 Alpha  occ. eigenvalues --   -7.49240  -7.49159  -7.49144  -7.49133  -7.49132
 Alpha  occ. eigenvalues --   -7.49122  -7.48978  -7.48911  -7.48805  -7.48750
 Alpha  occ. eigenvalues --   -7.48612  -7.48582  -7.48570  -7.48449  -7.48440
 Alpha  occ. eigenvalues --   -7.47756  -7.47447  -7.47227  -7.47082  -7.46885
 Alpha  occ. eigenvalues --   -7.46775  -3.26373  -3.26264  -3.25870  -3.25360
 Alpha  occ. eigenvalues --   -3.25323  -3.24355  -3.24332  -3.24092  -3.24049
 Alpha  occ. eigenvalues --   -3.23952  -3.23905  -3.23675  -3.23618  -3.23527
 Alpha  occ. eigenvalues --   -3.23422  -3.23369  -3.23350  -3.23293  -3.23284
 Alpha  occ. eigenvalues --   -3.23263  -3.23252  -3.23235  -3.23207  -3.23204
 Alpha  occ. eigenvalues --   -3.23139  -3.23099  -3.23081  -3.22971  -3.22970
 Alpha  occ. eigenvalues --   -3.22956  -3.22894  -3.22734  -3.22726  -3.22717
 Alpha  occ. eigenvalues --   -3.22662  -3.22654  -3.22635  -3.22628  -3.22572
 Alpha  occ. eigenvalues --   -3.22570  -3.22506  -3.22492  -3.22285  -3.22280
 Alpha  occ. eigenvalues --   -3.22128  -3.22120  -3.21961  -3.21953  -3.21945
 Alpha  occ. eigenvalues --   -3.21938  -3.21590  -3.21357  -3.21280  -3.21190
 Alpha  occ. eigenvalues --   -3.21023  -3.20899  -3.20607  -3.20597  -3.20269
 Alpha  occ. eigenvalues --   -3.20265  -1.11998  -1.08407  -1.07312  -1.06672
 Alpha  occ. eigenvalues --   -1.05967  -1.05396  -1.04382  -1.02929  -1.02479
 Alpha  occ. eigenvalues --   -1.02269  -1.01913  -1.00192  -0.90593  -0.79322
 Alpha  occ. eigenvalues --   -0.71993  -0.67918  -0.66261  -0.66045  -0.61830
 Alpha  occ. eigenvalues --   -0.60867  -0.58671  -0.57485  -0.56246  -0.55973
 Alpha  occ. eigenvalues --   -0.54848  -0.53969  -0.53423  -0.53014  -0.52073
 Alpha  occ. eigenvalues --   -0.50989  -0.50206  -0.49732  -0.49249  -0.48058
 Alpha  occ. eigenvalues --   -0.47301  -0.46443  -0.45815  -0.45746  -0.44748
 Alpha  occ. eigenvalues --   -0.44510  -0.44173  -0.43941  -0.43091  -0.42726
 Alpha  occ. eigenvalues --   -0.42535  -0.41960  -0.41451  -0.40821  -0.40588
 Alpha  occ. eigenvalues --   -0.40140  -0.40008  -0.39064  -0.38555  -0.37929
 Alpha virt. eigenvalues --   -0.03714   0.01897   0.03863   0.09342   0.10814
 Alpha virt. eigenvalues --    0.12011   0.13419   0.14734   0.16786   0.18167
 Alpha virt. eigenvalues --    0.18599   0.19640   0.19955   0.20888   0.21930

 Normal termination of Gaussian 98.
