============================== echo of input deck ==============================
echo

start molecule

title "diketene"
charge 0

geometry units angstroms print xyz autosym
 C                 -0.09798842    0.34086155   -0.96424183
 C                  0.91068452   -0.20359688    0.06422495
 C                 -1.41282363    0.03206059   -0.85280856
 O                  2.13160270    0.08314821   -0.03924786
 O                 -2.63374152   -0.25468458   -0.74933264
 C                  0.42522683   -1.09896714    1.21931929
 H                  0.45619605   -2.12384143    0.91342129
 H                  1.06084700   -0.96097709    2.06893435
 H                  0.23930993    0.96297046   -1.76680667
 H                 -0.57866108   -0.83419079    1.47816778
end

basis spherical
  * library 6-31+G*
end

task scf optimize
task scf freq
================================================================================

         Total SCF energy =   -303.469387114800
@ Step       Energy      Delta E   Gmax     Grms     Xrms     Xmax   Walltime
@ ---- ---------------- -------- -------- -------- -------- -------- --------
@    0    -303.46938711  0.0D+00  0.19718  0.03992  0.00000  0.00000     23.2
         Total SCF energy =   -303.497633100080
         Total SCF energy =   -303.506708324812
@    1    -303.50670832 -3.7D-02  0.03102  0.00645  0.07323  0.29725    122.1
         Total SCF energy =   -303.505884137695
         Total SCF energy =   -303.507660864395
@    2    -303.50766086 -9.5D-04  0.00800  0.00277  0.01736  0.05864    163.4
         Total SCF energy =   -303.507179782057
         Total SCF energy =   -303.508008867040
@    3    -303.50800887 -3.5D-04  0.00908  0.00218  0.00898  0.02306    301.1
         Total SCF energy =   -303.508223610056
         Total SCF energy =   -303.508239367155
@    4    -303.50823937 -2.3D-04  0.00362  0.00085  0.01476  0.04472    337.3
         Total SCF energy =   -303.508305430129
         Total SCF energy =   -303.508313019248
@    5    -303.50831302 -7.4D-05  0.00215  0.00049  0.01708  0.05708    370.9
         Total SCF energy =   -303.508340264658
         Total SCF energy =   -303.508343803818
@    6    -303.50834380 -3.1D-05  0.00083  0.00023  0.00695  0.01546    403.6
         Total SCF energy =   -303.508348544795
         Total SCF energy =   -303.508349432167
@    7    -303.50834943 -5.6D-06  0.00078  0.00022  0.00256  0.00685    425.6
         Total SCF energy =   -303.508354333206
         Total SCF energy =   -303.508359498414
@    8    -303.50835950 -1.0D-05  0.00046  0.00016  0.00593  0.02024    453.3
         Total SCF energy =   -303.508365682931
         Total SCF energy =   -303.508369652439
@    9    -303.50836965 -1.0D-05  0.00056  0.00017  0.01027  0.03578    486.1
         Total SCF energy =   -303.508375744363
         Total SCF energy =   -303.508379502321
@   10    -303.50837950 -9.8D-06  0.00039  0.00011  0.00872  0.02615    513.9
         Total SCF energy =   -303.508382591268
         Total SCF energy =   -303.508384855130
@   11    -303.50838486 -5.4D-06  0.00047  0.00013  0.00527  0.01407    539.4
         Total SCF energy =   -303.508390266845
         Total SCF energy =   -303.508403454400
@   12    -303.50840345 -1.9D-05  0.00055  0.00018  0.01865  0.05953    570.0
         Total SCF energy =   -303.508431886022
         Total SCF energy =   -303.508435217882
@   13    -303.50843522 -3.2D-05  0.00099  0.00039  0.09057  0.28398    604.6
         Total SCF energy =   -303.508472050088
         Total SCF energy =   -303.508484081053
@   14    -303.50848408 -4.9D-05  0.00022  0.00012  0.02469  0.06571    639.1
         Total SCF energy =   -303.508520661904
         Total SCF energy =   -303.508571031243
@   15    -303.50857103 -8.7D-05  0.00116  0.00028  0.13634  0.39152    683.5
         Total SCF energy =   -303.508585079341
         Total SCF energy =   -303.508585197310
@   16    -303.50858520 -1.4D-05  0.00032  0.00011  0.05684  0.15306    888.7
         Total SCF energy =   -303.508586629201
         Total SCF energy =   -303.508586629201
@   17    -303.50858663 -1.4D-06  0.00004  0.00002  0.00897  0.02580   1042.4
         Total SCF energy =   -303.508586734122
         Total SCF energy =   -303.508586734122
@   18    -303.50858673 -1.0D-07  0.00003  0.00001  0.00197  0.00551   1060.4
         Total SCF energy =   -303.508586813446

 Vector   24  Occ=0.000000D+00  E= 8.004262D-02

 Vector   25  Occ=0.000000D+00  E= 8.925105D-02

 Vector   26  Occ=0.000000D+00  E= 1.006007D-01

 Vector   27  Occ=0.000000D+00  E= 1.029028D-01

 Vector   28  Occ=0.000000D+00  E= 1.110233D-01

 Vector   29  Occ=0.000000D+00  E= 1.194654D-01

 Vector   30  Occ=0.000000D+00  E= 1.296678D-01

 Vector   31  Occ=0.000000D+00  E= 1.334038D-01

 Vector   32  Occ=0.000000D+00  E= 1.517543D-01

 Vector   33  Occ=0.000000D+00  E= 1.544951D-01

 Vector   34  Occ=0.000000D+00  E= 1.601987D-01

 Vector   35  Occ=0.000000D+00  E= 1.723069D-01

 Vector   36  Occ=0.000000D+00  E= 1.760542D-01

 Vector   37  Occ=0.000000D+00  E= 1.937039D-01

 Vector   38  Occ=0.000000D+00  E= 2.145258D-01

 Vector   39  Occ=0.000000D+00  E= 2.297873D-01

 Vector   40  Occ=0.000000D+00  E= 2.617213D-01

 Vector   41  Occ=0.000000D+00  E= 2.624541D-01

 Vector   42  Occ=0.000000D+00  E= 3.144643D-01

 Vector   43  Occ=0.000000D+00  E= 3.311354D-01

 Vector   44  Occ=0.000000D+00  E= 3.438543D-01

 Vector   45  Occ=0.000000D+00  E= 3.656969D-01

 Vector   46  Occ=0.000000D+00  E= 3.713703D-01

 Vector   47  Occ=0.000000D+00  E= 3.855402D-01

 Vector   48  Occ=0.000000D+00  E= 3.950276D-01

 Vector   49  Occ=0.000000D+00  E= 3.980316D-01

 Vector   50  Occ=0.000000D+00  E= 4.122541D-01

 Vector   51  Occ=0.000000D+00  E= 4.260540D-01

 Vector   52  Occ=0.000000D+00  E= 4.446690D-01

 Vector   53  Occ=0.000000D+00  E= 4.565176D-01

 Vector   54  Occ=0.000000D+00  E= 4.946229D-01

 Vector   55  Occ=0.000000D+00  E= 5.338261D-01

         Total SCF energy =   -303.508586813446
@   19    -303.50858681 -7.9D-08  0.00001  0.00000  0.00019  0.00058   1078.3
@   19    -303.50858681 -7.9D-08  0.00001  0.00000  0.00019  0.00058   1078.3

 Output coordinates in angstroms (scale by  1.889725989 to convert to a.u.)

  No.       Tag          Charge          X              Y              Z
 ---- ---------------- ---------- -------------- -------------- --------------
    1 C                    6.0000     0.88772756     0.23666908    -0.01699389
    2 C                    6.0000     0.08963584    -1.00027398     0.07829000
    3 C                    6.0000     0.34998101     1.43585268    -0.13625019
    4 O                    8.0000     0.63915921    -2.05688046     0.18462043
    5 O                    8.0000    -0.11028738     2.47111058    -0.23894320
    6 C                    6.0000    -1.41946274    -0.88702364     0.03758024
    7 H                    1.0000    -1.74519027    -0.43028587    -0.89248457
    8 H                    1.0000    -1.84836258    -1.87539701     0.11824508
    9 H                    1.0000     1.95916092     0.17851223     0.00915724
   10 H                    1.0000    -1.78051756    -0.27202944     0.85677785

         Total SCF energy =   -303.508589076934

 Vector    8  Occ=2.000000D+00  E=-1.410582D+00

 Vector    9  Occ=2.000000D+00  E=-1.110195D+00

 Vector   10  Occ=2.000000D+00  E=-1.013525D+00

 Vector   11  Occ=2.000000D+00  E=-8.329445D-01

 Vector   12  Occ=2.000000D+00  E=-7.717871D-01

 Vector   13  Occ=2.000000D+00  E=-7.142283D-01

 Vector   14  Occ=2.000000D+00  E=-6.883095D-01

 Vector   15  Occ=2.000000D+00  E=-6.872978D-01

 Vector   16  Occ=2.000000D+00  E=-6.282233D-01

 Vector   17  Occ=2.000000D+00  E=-6.190741D-01

 Vector   18  Occ=2.000000D+00  E=-6.071809D-01

 Vector   19  Occ=2.000000D+00  E=-5.657441D-01

 Vector   20  Occ=2.000000D+00  E=-5.253973D-01

 Vector   21  Occ=2.000000D+00  E=-4.312916D-01

 Vector   22  Occ=2.000000D+00  E=-3.822287D-01

 Vector   23  Occ=0.000000D+00  E= 5.838741D-02

 Vector   24  Occ=0.000000D+00  E= 8.000438D-02

 Vector   25  Occ=0.000000D+00  E= 8.954040D-02

 Vector   26  Occ=0.000000D+00  E= 1.007466D-01

 Vector   27  Occ=0.000000D+00  E= 1.029029D-01

 Vector   28  Occ=0.000000D+00  E= 1.110370D-01

 Vector   29  Occ=0.000000D+00  E= 1.194659D-01

 Vector   30  Occ=0.000000D+00  E= 1.296298D-01

 Vector   31  Occ=0.000000D+00  E= 1.334039D-01

 Vector   32  Occ=0.000000D+00  E= 1.517551D-01

 Vector   33  Occ=0.000000D+00  E= 1.544958D-01

 Vector   34  Occ=0.000000D+00  E= 1.600574D-01

 Vector   35  Occ=0.000000D+00  E= 1.723074D-01

 Vector   36  Occ=0.000000D+00  E= 1.761321D-01

 Vector   37  Occ=0.000000D+00  E= 1.932535D-01

 Vector   38  Occ=0.000000D+00  E= 2.138778D-01

 Vector   39  Occ=0.000000D+00  E= 2.279966D-01

 Vector   40  Occ=0.000000D+00  E= 2.617200D-01

 Vector   41  Occ=0.000000D+00  E= 2.657559D-01

 Vector   42  Occ=0.000000D+00  E= 3.143215D-01

 Vector   43  Occ=0.000000D+00  E= 3.311268D-01

 Vector   44  Occ=0.000000D+00  E= 3.438381D-01

 Vector   45  Occ=0.000000D+00  E= 3.656983D-01

 Vector   46  Occ=0.000000D+00  E= 3.714607D-01

 Vector   47  Occ=0.000000D+00  E= 3.858222D-01

 Vector   48  Occ=0.000000D+00  E= 3.942485D-01

 Vector   49  Occ=0.000000D+00  E= 3.981431D-01

 Vector   50  Occ=0.000000D+00  E= 4.122564D-01

 Vector   51  Occ=0.000000D+00  E= 4.261569D-01

 Vector   52  Occ=0.000000D+00  E= 4.447671D-01

 Vector   53  Occ=0.000000D+00  E= 4.565255D-01

 Vector   54  Occ=0.000000D+00  E= 4.945176D-01

 Vector   55  Occ=0.000000D+00  E= 5.341038D-01

       Multipole analysis of the density wrt the origin
       ------------------------------------------------

     L   x y z        total         open         nuclear
     -   - - -        -----         ----         -------
     0   0 0 0     -0.000000      0.000000     44.000000

     1   1 0 0     -0.425515      0.000000      0.497669
     1   0 1 0      0.828021      0.000000     -0.706785
     1   0 0 1     -0.083669      0.000000     -1.071720

     2   2 0 0    -23.679172      0.000000    122.976477
     2   1 1 0      4.189242      0.000000     13.020504
     2   1 0 1     -0.321841      0.000000      1.184450
     2   0 2 0    -34.385046      0.000000    392.586916
     2   0 1 1      0.820238      0.000000    -34.634195

 Zero-Point correction to Energy  =   47.701 kcal/mol  (  0.076016 au)
 Thermal correction to Energy     =   51.562 kcal/mol  (  0.082169 au)
 Thermal correction to Enthalpy   =   52.154 kcal/mol  (  0.083112 au)
 Total Entropy                    =   79.105 cal/mol-K
   - Translational                =   39.181 cal/mol-K (mol. weight =  84.0211)
   - Rotational                   =   26.530 cal/mol-K (symmetry #  =        1)
   - Vibrational                  =   13.393 cal/mol-K
   - Translational                  =    2.979 cal/mol-K
   - Rotational                     =    2.979 cal/mol-K
   - Vibrational                    =   13.779 cal/mol-K
 P.Frequency       -0.00        0.00        0.00        0.00        0.00        0.00
 P.Frequency       61.00      127.00      156.46      424.34      539.21      541.03
 P.Frequency      619.93      682.85      725.78      873.90     1115.24     1148.87
 P.Frequency     1212.10     1353.44     1509.84     1551.10     1609.69     1620.40
 P.Frequency     1958.50     2360.63     3204.96     3261.64     3325.34     3399.84

 Normal Eigenvalue ||           Projected Infra Red Intensities
  Mode   [cm**-1]  || [atomic units] [(debye/angs)**2] [(KM/mol)] [arbitrary]
 ------ ---------- || -------------- ----------------- ---------- -----------
    1       -0.000 ||    0.000371           0.009         0.361       0.045
    2        0.000 ||    0.000731           0.017         0.713       0.088
    3        0.000 ||    0.000767           0.018         0.747       0.092
    4        0.000 ||    0.000007           0.000         0.007       0.001
    5        0.000 ||    0.000315           0.007         0.308       0.038
    6        0.000 ||    0.000516           0.012         0.503       0.062
    7       60.995 ||    0.001944           0.045         1.896       0.234
    8      126.998 ||    0.006745           0.156         6.576       0.813
    9      156.456 ||    0.009064           0.209         8.836       1.093
   10      424.340 ||    0.004859           0.112         4.736       0.586
   11      539.211 ||    0.020050           0.463        19.545       2.417
   12      541.029 ||    0.006534           0.151         6.370       0.788
   13      619.931 ||    0.013711           0.316        13.366       1.653
   14      682.854 ||    0.007166           0.165         6.986       0.864
   15      725.778 ||    0.075267           1.736        73.374       9.074
   16      873.898 ||    0.002226           0.051         2.170       0.268
   17     1115.236 ||    0.041861           0.966        40.809       5.047
   18     1148.869 ||    0.007233           0.167         7.051       0.872
   19     1212.095 ||    0.005769           0.133         5.624       0.696
   20     1353.435 ||    0.185619           4.282       180.950      22.378
   21     1509.837 ||    0.084141           1.941        82.025      10.144
   22     1551.096 ||    0.048308           1.115        47.093       5.824
   23     1609.695 ||    0.005409           0.125         5.273       0.652
   24     1620.404 ||    0.011367           0.262        11.081       1.370
   25     1958.496 ||    0.640267          14.771       624.164      77.189
   26     2360.634 ||    1.263585          29.152      1231.805     152.334
   27     3204.961 ||    0.006241           0.144         6.084       0.752
   28     3261.638 ||    0.013733           0.317        13.388       1.656
   29     3325.335 ||    0.008793           0.203         8.572       1.060
   30     3399.836 ||    0.015847           0.366        15.448       1.910
 ----------------------------------------------------------------------------

 Total times  cpu:     1193.3s     wall:     1153.2s
